<?xml version="1.0"?>
<VTKFile type="ImageData" version="0.1" byte_order="LittleEndian">
<ImageData WholeExtent="0 120 0 20 0 200" Origin="0 0 0" Spacing="1 1 1">
<Piece Extent="0 120 0 20 0 200">
<PointData>
</PointData>
<CellData Scalars="Spin">
<DataArray type="Int32" Name="Spin" format="ascii" RangeMin="0" RangeMax="10000">
42258 42258 42258 42258 42258 42258 42258 42258 42258 42258 42258 42258 42258 42258 42258 42258 42258 42258 42258 42258 42258 42258 42258 29836 29836 29836 29836 29836 29836 29836 29836 29836 29836 29836 29836 29836 29836 29836 29836 29836 29836 29836 29836 29836 29836 29836 29836 29836 29836 29836 29836 29836 29836 29836 29836 29836 29836 29836 29836 29836 29836 29836 29836 29836 3219 3219 3219 3219 3219 3219 3219 3219 3219 3219 3219 3219 3219 3219 3219 3219 3219 3219 3219 3219 3219 3219 3219 3219 3219 3219 3219 3219 3219 3219 3219 3219 3219 3219 3219 3219 3219 3219 46432 46432 46432 46432 46432 46432 46432 46432 46432 46432 46432 46432 46432 46432 46432 46432 46432 46432 42258 42258 42258 42258 42258 42258 42258 42258 42258 42258 42258 42258 42258 42258 42258 42258 42258 42258 42258 42258 42258 42258 42258 29836 29836 29836 29836 29836 29836 29836 29836 29836 29836 29836 29836 29836 29836 29836 29836 29836 29836 29836 29836 29836 29836 29836 29836 29836 29836 29836 29836 29836 29836 29836 29836 29836 29836 29836 29836 29836 29836 29836 29836 29836 3219 3219 3219 3219 3219 3219 3219 3219 3219 3219 3219 3219 3219 3219 3219 3219 3219 3219 3219 3219 3219 3219 3219 3219 3219 3219 3219 3219 3219 3219 3219 3219 3219 3219 3219 3219 3219 3219 46432 46432 46432 46432 46432 46432 46432 46432 46432 46432 46432 46432 46432 46432 46432 46432 46432 46432 42258 42258 42258 42258 42258 42258 42258 42258 42258 42258 42258 42258 42258 42258 42258 42258 42258 42258 42258 42258 42258 42258 42258 29836 29836 29836 29836 29836 29836 29836 29836 29836 29836 29836 29836 29836 29836 29836 29836 29836 29836 29836 29836 29836 29836 29836 29836 29836 29836 29836 29836 29836 29836 29836 29836 29836 29836 29836 29836 29836 29836 29836 29836 29836 3219 3219 3219 3219 3219 3219 3219 3219 3219 3219 3219 3219 3219 3219 3219 3219 3219 3219 3219 3219 3219 3219 3219 3219 3219 3219 3219 3219 3219 3219 3219 3219 3219 3219 3219 3219 3219 3219 46432 46432 46432 46432 46432 46432 46432 46432 46432 46432 46432 46432 46432 46432 46432 46432 46432 46432 42258 42258 42258 42258 42258 42258 42258 42258 42258 42258 42258 42258 42258 42258 42258 42258 42258 42258 42258 42258 42258 42258 42258 29836 29836 29836 29836 29836 29836 29836 29836 29836 29836 29836 29836 29836 29836 29836 29836 29836 29836 29836 29836 29836 29836 29836 29836 29836 29836 29836 29836 29836 29836 29836 29836 29836 29836 29836 29836 29836 29836 29836 29836 29836 3219 3219 3219 3219 3219 3219 3219 3219 3219 3219 3219 3219 3219 3219 3219 3219 3219 3219 3219 3219 3219 3219 3219 3219 3219 3219 3219 3219 3219 3219 3219 3219 3219 3219 3219 3219 3219 3219 46432 46432 46432 46432 46432 46432 46432 46432 46432 46432 46432 46432 46432 46432 46432 46432 46432 46432 42258 42258 42258 42258 42258 42258 42258 42258 42258 42258 42258 42258 42258 42258 42258 42258 42258 42258 42258 42258 42258 42258 42258 29836 29836 29836 29836 29836 29836 29836 29836 29836 29836 29836 29836 29836 29836 29836 29836 29836 29836 29836 29836 29836 29836 29836 29836 29836 29836 29836 29836 29836 29836 29836 29836 29836 29836 29836 29836 29836 29836 29836 29836 29836 3219 3219 3219 3219 3219 3219 3219 3219 3219 3219 3219 3219 3219 3219 3219 3219 3219 3219 3219 3219 3219 3219 3219 3219 3219 3219 3219 3219 3219 3219 3219 3219 3219 3219 3219 3219 3219 3219 46432 46432 46432 46432 46432 46432 46432 46432 46432 46432 46432 46432 46432 46432 46432 46432 46432 46432 42258 42258 42258 42258 42258 42258 42258 42258 42258 42258 42258 42258 42258 42258 42258 42258 42258 42258 42258 42258 42258 42258 42258 29836 29836 29836 29836 29836 29836 29836 29836 29836 29836 29836 29836 29836 29836 29836 29836 29836 29836 29836 29836 29836 29836 29836 29836 29836 29836 29836 29836 29836 29836 29836 29836 29836 29836 29836 29836 29836 29836 29836 29836 29836 3219 3219 3219 3219 3219 3219 3219 3219 3219 3219 3219 3219 3219 3219 3219 3219 3219 3219 3219 3219 3219 3219 3219 3219 3219 3219 3219 3219 3219 3219 3219 3219 3219 3219 3219 3219 3219 3219 46432 46432 46432 46432 46432 46432 46432 46432 46432 46432 46432 46432 46432 46432 46432 46432 46432 46432 42258 42258 42258 42258 42258 42258 42258 42258 42258 42258 42258 42258 42258 42258 42258 42258 42258 42258 42258 42258 42258 42258 42258 29836 29836 29836 29836 29836 29836 29836 29836 29836 29836 29836 29836 29836 29836 29836 29836 29836 29836 29836 29836 29836 29836 29836 29836 29836 29836 29836 29836 29836 29836 29836 29836 29836 29836 29836 29836 29836 29836 29836 29836 29836 3219 3219 3219 3219 3219 3219 3219 3219 3219 3219 3219 3219 3219 3219 3219 3219 3219 3219 3219 3219 3219 3219 3219 3219 3219 3219 3219 3219 3219 3219 3219 3219 3219 3219 3219 3219 3219 3219 46432 46432 46432 46432 46432 46432 46432 46432 46432 46432 46432 46432 46432 46432 46432 46432 46432 46432 42258 42258 42258 42258 42258 42258 42258 42258 42258 42258 42258 42258 42258 42258 42258 42258 42258 42258 42258 42258 42258 42258 42258 29836 29836 29836 29836 29836 29836 29836 29836 29836 29836 29836 29836 29836 29836 29836 29836 29836 29836 29836 29836 29836 29836 29836 29836 29836 29836 29836 29836 29836 29836 29836 29836 29836 29836 29836 29836 29836 29836 29836 29836 29836 3219 3219 3219 3219 3219 3219 3219 3219 3219 3219 3219 3219 3219 3219 3219 3219 3219 3219 3219 3219 3219 3219 3219 3219 3219 3219 3219 3219 3219 3219 3219 3219 3219 3219 3219 3219 3219 3219 46432 46432 46432 46432 46432 46432 46432 46432 46432 46432 46432 46432 46432 46432 46432 46432 46432 46432 42258 42258 42258 42258 42258 42258 42258 42258 42258 42258 42258 42258 42258 42258 42258 42258 42258 42258 42258 42258 42258 42258 42258 29836 29836 29836 29836 29836 29836 29836 29836 29836 29836 29836 29836 29836 29836 29836 29836 29836 29836 29836 29836 29836 29836 29836 29836 29836 29836 29836 29836 29836 29836 29836 29836 29836 29836 29836 29836 29836 29836 29836 29836 29836 3219 3219 3219 3219 3219 3219 3219 3219 3219 3219 3219 3219 3219 3219 3219 3219 3219 3219 3219 3219 3219 3219 3219 3219 3219 3219 3219 3219 3219 3219 3219 3219 3219 3219 3219 3219 3219 3219 46432 46432 46432 46432 46432 46432 46432 46432 46432 46432 46432 46432 46432 46432 46432 46432 46432 46432 42258 42258 42258 42258 42258 42258 42258 42258 42258 42258 42258 42258 42258 42258 42258 42258 42258 42258 42258 42258 42258 42258 42258 29836 29836 29836 29836 29836 29836 29836 29836 29836 29836 29836 29836 29836 29836 29836 29836 29836 29836 29836 29836 29836 29836 29836 29836 29836 29836 29836 29836 29836 29836 29836 29836 29836 29836 29836 29836 29836 29836 29836 29836 29836 3219 3219 3219 3219 3219 3219 3219 3219 3219 3219 3219 3219 3219 3219 3219 3219 3219 3219 3219 3219 3219 3219 3219 3219 3219 3219 3219 3219 3219 3219 3219 3219 3219 3219 3219 3219 3219 3219 46432 46432 46432 46432 46432 46432 46432 46432 46432 46432 46432 46432 46432 46432 46432 46432 46432 46432 42258 42258 42258 42258 42258 42258 42258 42258 42258 42258 42258 42258 42258 42258 42258 42258 42258 42258 42258 42258 42258 42258 42258 29836 29836 29836 29836 29836 29836 29836 29836 29836 29836 29836 29836 29836 29836 29836 29836 29836 29836 29836 29836 29836 29836 29836 29836 29836 29836 29836 29836 29836 29836 29836 29836 29836 29836 29836 29836 29836 29836 29836 29836 29836 3219 3219 3219 3219 3219 3219 3219 3219 3219 3219 3219 3219 3219 3219 3219 3219 3219 3219 3219 3219 3219 3219 3219 3219 3219 3219 3219 3219 3219 3219 3219 3219 3219 3219 3219 3219 3219 3219 46432 46432 46432 46432 46432 46432 46432 46432 46432 46432 46432 46432 46432 46432 46432 46432 46432 46432 42258 42258 42258 42258 42258 42258 42258 42258 42258 42258 42258 42258 42258 42258 42258 42258 42258 42258 42258 42258 42258 42258 42258 29836 29836 29836 29836 29836 29836 29836 29836 29836 29836 29836 29836 29836 29836 29836 29836 29836 29836 29836 29836 29836 29836 29836 29836 29836 29836 29836 29836 29836 29836 29836 29836 29836 29836 29836 29836 29836 29836 29836 29836 29836 3219 3219 3219 3219 3219 3219 3219 3219 3219 3219 3219 3219 3219 3219 3219 3219 3219 3219 3219 3219 3219 3219 3219 3219 3219 3219 3219 3219 3219 3219 3219 3219 3219 3219 3219 3219 3219 3219 46432 46432 46432 46432 46432 46432 46432 46432 46432 46432 46432 46432 46432 46432 46432 46432 46432 46432 42258 42258 42258 42258 42258 42258 42258 42258 42258 42258 42258 42258 42258 42258 42258 42258 42258 42258 42258 42258 42258 42258 42258 29836 29836 29836 29836 29836 29836 29836 29836 29836 29836 29836 29836 29836 29836 29836 29836 29836 29836 29836 29836 29836 29836 29836 29836 29836 29836 29836 29836 29836 29836 29836 29836 29836 29836 29836 29836 29836 29836 29836 29836 29836 3219 3219 3219 3219 3219 3219 3219 3219 3219 3219 3219 3219 3219 3219 3219 3219 3219 3219 3219 3219 3219 3219 3219 3219 3219 3219 3219 3219 3219 3219 3219 3219 3219 3219 3219 3219 3219 3219 46432 46432 46432 46432 46432 46432 46432 46432 46432 46432 46432 46432 46432 46432 46432 46432 46432 46432 42258 42258 42258 42258 42258 42258 42258 42258 42258 42258 42258 42258 42258 42258 42258 42258 42258 42258 42258 42258 42258 42258 42258 29836 29836 29836 29836 29836 29836 29836 29836 29836 29836 29836 29836 29836 29836 29836 29836 29836 29836 29836 29836 29836 29836 29836 29836 29836 29836 29836 29836 29836 29836 29836 29836 29836 29836 29836 29836 29836 29836 29836 29836 29836 3219 3219 3219 3219 3219 3219 3219 3219 3219 3219 3219 3219 3219 3219 3219 3219 3219 3219 3219 3219 3219 3219 3219 3219 3219 3219 3219 3219 3219 3219 3219 3219 3219 3219 3219 3219 3219 3219 46432 46432 46432 46432 46432 46432 46432 46432 46432 46432 46432 46432 46432 46432 46432 46432 46432 46432 42258 42258 42258 42258 42258 42258 42258 42258 42258 42258 42258 42258 42258 42258 42258 42258 42258 42258 42258 42258 42258 42258 42258 29836 29836 29836 29836 29836 29836 29836 29836 29836 29836 29836 29836 29836 29836 29836 29836 29836 29836 29836 29836 29836 29836 29836 29836 29836 29836 29836 29836 29836 29836 29836 29836 29836 29836 29836 29836 29836 29836 29836 29836 29836 3219 3219 3219 3219 3219 3219 3219 3219 3219 3219 3219 3219 3219 3219 3219 3219 3219 3219 3219 3219 3219 3219 3219 3219 3219 3219 3219 3219 3219 3219 3219 3219 3219 3219 3219 3219 3219 3219 46432 46432 46432 46432 46432 46432 46432 46432 46432 46432 46432 46432 46432 46432 46432 46432 46432 46432 42258 42258 42258 42258 42258 42258 42258 42258 42258 42258 42258 42258 42258 42258 42258 42258 42258 42258 42258 42258 42258 42258 42258 29836 29836 29836 29836 29836 29836 29836 29836 29836 29836 29836 29836 29836 29836 29836 29836 29836 29836 29836 29836 29836 29836 29836 29836 29836 29836 29836 29836 29836 29836 29836 29836 29836 29836 29836 29836 29836 29836 29836 29836 29836 3219 3219 3219 3219 3219 3219 3219 3219 3219 3219 3219 3219 3219 3219 3219 3219 3219 3219 3219 3219 3219 3219 3219 3219 3219 3219 3219 3219 3219 3219 3219 3219 3219 3219 3219 3219 3219 3219 46432 46432 46432 46432 46432 46432 46432 46432 46432 46432 46432 46432 46432 46432 46432 46432 46432 46432 42258 42258 42258 42258 42258 42258 42258 42258 42258 42258 42258 42258 42258 42258 42258 42258 42258 42258 42258 42258 42258 42258 42258 29836 29836 29836 29836 29836 29836 29836 29836 29836 29836 29836 29836 29836 29836 29836 29836 29836 29836 29836 29836 29836 29836 29836 29836 29836 29836 29836 29836 29836 29836 29836 29836 29836 29836 29836 29836 29836 29836 29836 29836 29836 3219 3219 3219 3219 3219 3219 3219 3219 3219 3219 3219 3219 3219 3219 3219 3219 3219 3219 3219 3219 3219 3219 3219 3219 3219 3219 3219 3219 3219 3219 3219 3219 3219 3219 3219 3219 3219 3219 46432 46432 46432 46432 46432 46432 46432 46432 46432 46432 46432 46432 46432 46432 46432 46432 46432 46432 42258 42258 42258 42258 42258 42258 42258 42258 42258 42258 42258 42258 42258 42258 42258 42258 42258 42258 42258 42258 42258 42258 42258 29836 29836 29836 29836 29836 29836 29836 29836 29836 29836 29836 29836 29836 29836 29836 29836 29836 29836 29836 29836 29836 29836 29836 29836 29836 29836 29836 29836 29836 29836 29836 29836 29836 29836 29836 29836 29836 29836 29836 29836 29836 3219 3219 3219 3219 3219 3219 3219 3219 3219 3219 3219 3219 3219 3219 3219 3219 3219 3219 3219 3219 3219 3219 3219 3219 3219 3219 3219 3219 3219 3219 3219 3219 3219 3219 3219 3219 3219 3219 46432 46432 46432 46432 46432 46432 46432 46432 46432 46432 46432 46432 46432 46432 46432 46432 46432 46432 42258 42258 42258 42258 42258 42258 42258 42258 42258 42258 42258 42258 42258 42258 42258 42258 42258 42258 42258 42258 42258 42258 42258 29836 29836 29836 29836 29836 29836 29836 29836 29836 29836 29836 29836 29836 29836 29836 29836 29836 29836 29836 29836 29836 29836 29836 29836 29836 29836 29836 29836 29836 29836 29836 29836 29836 29836 29836 29836 29836 29836 29836 29836 29836 3219 3219 3219 3219 3219 3219 3219 3219 3219 3219 3219 3219 3219 3219 3219 3219 3219 3219 3219 3219 3219 3219 3219 3219 3219 3219 3219 3219 3219 3219 3219 3219 3219 3219 3219 3219 3219 3219 46432 46432 46432 46432 46432 46432 46432 46432 46432 46432 46432 46432 46432 46432 46432 46432 46432 46432 42258 42258 42258 42258 42258 42258 42258 42258 42258 42258 42258 42258 42258 42258 42258 42258 42258 42258 42258 42258 42258 42258 42258 29836 29836 29836 29836 29836 29836 29836 29836 29836 29836 29836 29836 29836 29836 29836 29836 29836 29836 29836 29836 29836 29836 29836 29836 29836 29836 29836 29836 29836 29836 29836 29836 29836 29836 29836 29836 29836 29836 29836 29836 29836 3219 3219 3219 3219 3219 3219 3219 3219 3219 3219 3219 3219 3219 3219 3219 3219 3219 3219 3219 3219 3219 3219 3219 3219 3219 3219 3219 3219 3219 3219 3219 3219 3219 3219 3219 3219 3219 3219 46432 46432 46432 46432 46432 46432 46432 46432 46432 46432 46432 46432 46432 46432 46432 46432 46432 46432 42258 42258 42258 42258 42258 42258 42258 42258 42258 42258 42258 42258 42258 42258 42258 42258 42258 42258 42258 42258 42258 42258 42258 29836 29836 29836 29836 29836 29836 29836 29836 29836 29836 29836 29836 29836 29836 29836 29836 29836 29836 29836 29836 29836 29836 29836 29836 29836 29836 29836 29836 29836 29836 29836 29836 29836 29836 29836 29836 29836 29836 29836 29836 29836 3219 3219 3219 3219 3219 3219 3219 3219 3219 3219 3219 3219 3219 3219 3219 3219 3219 3219 3219 3219 3219 3219 3219 3219 3219 3219 3219 3219 3219 3219 3219 3219 3219 3219 3219 3219 3219 3219 46432 46432 46432 46432 46432 46432 46432 46432 46432 46432 46432 46432 46432 46432 46432 46432 46432 46432 42258 42258 42258 42258 42258 42258 42258 42258 42258 42258 42258 42258 42258 42258 42258 42258 42258 42258 42258 42258 42258 42258 42258 29836 29836 29836 29836 29836 29836 29836 29836 29836 29836 29836 29836 29836 29836 29836 29836 29836 29836 29836 29836 29836 29836 29836 29836 29836 29836 29836 29836 29836 29836 29836 29836 29836 29836 29836 29836 29836 29836 29836 29836 29836 3219 3219 3219 3219 3219 3219 3219 3219 3219 3219 3219 3219 3219 3219 3219 3219 3219 3219 3219 3219 3219 3219 3219 3219 3219 3219 3219 3219 3219 3219 3219 3219 3219 3219 3219 3219 3219 3219 46432 46432 46432 46432 46432 46432 46432 46432 46432 46432 46432 46432 46432 46432 46432 46432 46432 46432 42258 42258 42258 42258 42258 42258 42258 42258 42258 42258 42258 42258 42258 42258 42258 42258 42258 42258 42258 42258 42258 42258 42258 29836 29836 29836 29836 29836 29836 29836 29836 29836 29836 29836 29836 29836 29836 29836 29836 29836 29836 29836 29836 29836 29836 29836 29836 29836 29836 29836 29836 29836 29836 29836 29836 29836 29836 29836 29836 29836 29836 29836 29836 29836 3219 3219 3219 3219 3219 3219 3219 3219 3219 3219 3219 3219 3219 3219 3219 3219 3219 3219 3219 3219 3219 3219 3219 3219 3219 3219 3219 3219 3219 3219 3219 3219 3219 3219 3219 3219 3219 3219 46432 46432 46432 46432 46432 46432 46432 46432 46432 46432 46432 46432 46432 46432 46432 46432 46432 46432 42258 42258 42258 42258 42258 42258 42258 42258 42258 42258 42258 42258 42258 42258 42258 42258 42258 42258 42258 42258 42258 42258 42258 29836 29836 29836 29836 29836 29836 29836 29836 29836 29836 29836 29836 29836 29836 29836 29836 29836 29836 29836 29836 29836 29836 29836 29836 29836 29836 29836 29836 29836 29836 29836 29836 29836 29836 29836 29836 29836 29836 29836 29836 29836 3219 3219 3219 3219 3219 3219 3219 3219 3219 3219 3219 3219 3219 3219 3219 3219 3219 3219 3219 3219 3219 3219 3219 3219 3219 3219 3219 3219 3219 3219 3219 3219 3219 3219 3219 3219 3219 3219 46432 46432 46432 46432 46432 46432 46432 46432 46432 46432 46432 46432 46432 46432 46432 46432 46432 46432 42258 42258 42258 42258 42258 42258 42258 42258 42258 42258 42258 42258 42258 42258 42258 42258 42258 42258 42258 42258 42258 42258 42258 29836 29836 29836 29836 29836 29836 29836 29836 29836 29836 29836 29836 29836 29836 29836 29836 29836 29836 29836 29836 29836 29836 29836 29836 29836 29836 29836 29836 29836 29836 29836 29836 29836 29836 29836 29836 29836 29836 29836 29836 29836 3219 3219 3219 3219 3219 3219 3219 3219 3219 3219 3219 3219 3219 3219 3219 3219 3219 3219 3219 3219 3219 3219 3219 3219 3219 3219 3219 3219 3219 3219 3219 3219 3219 3219 3219 3219 3219 3219 46432 46432 46432 46432 46432 46432 46432 46432 46432 46432 46432 46432 46432 46432 46432 46432 46432 46432 42258 42258 42258 42258 42258 42258 42258 42258 42258 42258 42258 42258 42258 42258 42258 42258 42258 42258 42258 42258 42258 42258 42258 29836 29836 29836 29836 29836 29836 29836 29836 29836 29836 29836 29836 29836 29836 29836 29836 29836 29836 29836 29836 29836 29836 29836 29836 29836 29836 29836 29836 29836 29836 29836 29836 29836 29836 29836 29836 29836 29836 29836 29836 29836 3219 3219 3219 3219 3219 3219 3219 3219 3219 3219 3219 3219 3219 3219 3219 3219 3219 3219 3219 3219 3219 3219 3219 3219 3219 3219 3219 3219 3219 3219 3219 3219 3219 3219 3219 3219 3219 3219 46432 46432 46432 46432 46432 46432 46432 46432 46432 46432 46432 46432 46432 46432 46432 46432 46432 46432 42258 42258 42258 42258 42258 42258 42258 42258 42258 42258 42258 42258 42258 42258 42258 42258 42258 42258 42258 42258 42258 42258 42258 29836 29836 29836 29836 29836 29836 29836 29836 29836 29836 29836 29836 29836 29836 29836 29836 29836 29836 29836 29836 29836 29836 29836 29836 29836 29836 29836 29836 29836 29836 29836 29836 29836 29836 29836 29836 29836 29836 29836 29836 29836 3219 3219 3219 3219 3219 3219 3219 3219 3219 3219 3219 3219 3219 3219 3219 3219 3219 3219 3219 3219 3219 3219 3219 3219 3219 3219 3219 3219 3219 3219 3219 3219 3219 3219 3219 3219 3219 3219 46432 46432 46432 46432 46432 46432 46432 46432 46432 46432 46432 46432 46432 46432 46432 46432 46432 46432 42258 42258 42258 42258 42258 42258 42258 42258 42258 42258 42258 42258 42258 42258 42258 42258 42258 42258 42258 42258 42258 42258 42258 29836 29836 29836 29836 29836 29836 29836 29836 29836 29836 29836 29836 29836 29836 29836 29836 29836 29836 29836 29836 29836 29836 29836 29836 29836 29836 29836 29836 29836 29836 29836 29836 29836 29836 29836 29836 29836 29836 29836 29836 29836 3219 3219 3219 3219 3219 3219 3219 3219 3219 3219 3219 3219 3219 3219 3219 3219 3219 3219 3219 3219 3219 3219 3219 3219 3219 3219 3219 3219 3219 3219 3219 3219 3219 3219 3219 3219 3219 3219 46432 46432 46432 46432 46432 46432 46432 46432 46432 46432 46432 46432 46432 46432 46432 46432 46432 46432 42258 42258 42258 42258 42258 42258 42258 42258 42258 42258 42258 42258 42258 42258 42258 42258 42258 42258 42258 42258 42258 42258 42258 29836 29836 29836 29836 29836 29836 29836 29836 29836 29836 29836 29836 29836 29836 29836 29836 29836 29836 29836 29836 29836 29836 29836 29836 29836 29836 29836 29836 29836 29836 29836 29836 29836 29836 29836 29836 29836 29836 29836 29836 29836 3219 3219 3219 3219 3219 3219 3219 3219 3219 3219 3219 3219 3219 3219 3219 3219 3219 3219 3219 3219 3219 3219 3219 3219 3219 3219 3219 3219 3219 3219 3219 3219 3219 3219 3219 3219 3219 3219 46432 46432 46432 46432 46432 46432 46432 46432 46432 46432 46432 46432 46432 46432 46432 46432 46432 46432 42258 42258 42258 42258 42258 42258 42258 42258 42258 42258 42258 42258 42258 42258 42258 42258 42258 42258 42258 42258 42258 42258 42258 29836 29836 29836 29836 29836 29836 29836 29836 29836 29836 29836 29836 29836 29836 29836 29836 29836 29836 29836 29836 29836 29836 29836 29836 29836 29836 29836 29836 29836 29836 29836 29836 29836 29836 29836 29836 29836 29836 29836 29836 29836 3219 3219 3219 3219 3219 3219 3219 3219 3219 3219 3219 3219 3219 3219 3219 3219 3219 3219 3219 3219 3219 3219 3219 3219 3219 3219 3219 3219 3219 3219 3219 3219 3219 3219 3219 3219 3219 3219 46432 46432 46432 46432 46432 46432 46432 46432 46432 46432 46432 46432 46432 46432 46432 46432 46432 46432 42258 42258 42258 42258 42258 42258 42258 42258 42258 42258 42258 42258 42258 42258 42258 42258 42258 42258 42258 42258 42258 42258 42258 29836 29836 29836 29836 29836 29836 29836 29836 29836 29836 29836 29836 29836 29836 29836 29836 29836 29836 29836 29836 29836 29836 29836 29836 29836 29836 29836 29836 29836 29836 29836 29836 29836 29836 29836 29836 29836 29836 29836 29836 29836 3219 3219 3219 3219 3219 3219 3219 3219 3219 3219 3219 3219 3219 3219 3219 3219 3219 3219 3219 3219 3219 3219 3219 3219 3219 3219 3219 3219 3219 3219 3219 3219 3219 3219 3219 3219 3219 3219 46432 46432 46432 46432 46432 46432 46432 46432 46432 46432 46432 46432 46432 46432 46432 46432 46432 46432 42258 42258 42258 42258 42258 42258 42258 42258 42258 42258 42258 42258 42258 42258 42258 42258 42258 42258 42258 42258 42258 42258 42258 29836 29836 29836 29836 29836 29836 29836 29836 29836 29836 29836 29836 29836 29836 29836 29836 29836 29836 29836 29836 29836 29836 29836 29836 29836 29836 29836 29836 29836 29836 29836 29836 29836 29836 29836 29836 29836 29836 29836 29836 29836 3219 3219 3219 3219 3219 3219 3219 3219 3219 3219 3219 3219 3219 3219 3219 3219 3219 3219 3219 3219 3219 3219 3219 3219 3219 3219 3219 3219 3219 3219 3219 3219 3219 3219 3219 3219 3219 3219 46432 46432 46432 46432 46432 46432 46432 46432 46432 46432 46432 46432 46432 46432 46432 46432 46432 46432 42258 42258 42258 42258 42258 42258 42258 42258 42258 42258 42258 42258 42258 42258 42258 42258 42258 42258 42258 42258 42258 42258 42258 29836 29836 29836 29836 29836 29836 29836 29836 29836 29836 29836 29836 29836 29836 29836 29836 29836 29836 29836 29836 29836 29836 29836 29836 29836 29836 29836 29836 29836 29836 29836 29836 29836 29836 29836 29836 29836 29836 29836 29836 29836 3219 3219 3219 3219 3219 3219 3219 3219 3219 3219 3219 3219 3219 3219 3219 3219 3219 3219 3219 3219 3219 3219 3219 3219 3219 3219 3219 3219 3219 3219 3219 3219 3219 3219 3219 3219 3219 3219 46432 46432 46432 46432 46432 46432 46432 46432 46432 46432 46432 46432 46432 46432 46432 46432 46432 46432 42258 42258 42258 42258 42258 42258 42258 42258 42258 42258 42258 42258 42258 42258 42258 42258 42258 42258 42258 42258 42258 42258 42258 29836 29836 29836 29836 29836 29836 29836 29836 29836 29836 29836 29836 29836 29836 29836 29836 29836 29836 29836 29836 29836 29836 29836 29836 29836 29836 29836 29836 29836 29836 29836 29836 29836 29836 29836 29836 29836 29836 29836 29836 29836 3219 3219 3219 3219 3219 3219 3219 3219 3219 3219 3219 3219 3219 3219 3219 3219 3219 3219 3219 3219 3219 3219 3219 3219 3219 3219 3219 3219 3219 3219 3219 3219 3219 3219 3219 3219 3219 3219 46432 46432 46432 46432 46432 46432 46432 46432 46432 46432 46432 46432 46432 46432 46432 46432 46432 46432 42258 42258 42258 42258 42258 42258 42258 42258 42258 42258 42258 42258 42258 42258 42258 42258 42258 42258 42258 42258 42258 42258 42258 29836 29836 29836 29836 29836 29836 29836 29836 29836 29836 29836 29836 29836 29836 29836 29836 29836 29836 29836 29836 29836 29836 29836 29836 29836 29836 29836 29836 29836 29836 29836 29836 29836 29836 29836 29836 29836 29836 29836 29836 29836 3219 3219 3219 3219 3219 3219 3219 3219 3219 3219 3219 3219 3219 3219 3219 3219 3219 3219 3219 3219 3219 3219 3219 3219 3219 3219 3219 3219 3219 3219 3219 3219 3219 3219 3219 3219 3219 3219 46432 46432 46432 46432 46432 46432 46432 46432 46432 46432 46432 46432 46432 46432 46432 46432 46432 46432 42258 42258 42258 42258 42258 42258 42258 42258 42258 42258 42258 42258 42258 42258 42258 42258 42258 42258 42258 42258 42258 42258 42258 29836 29836 29836 29836 29836 29836 29836 29836 29836 29836 29836 29836 29836 29836 29836 29836 29836 29836 29836 29836 29836 29836 29836 29836 29836 29836 29836 29836 29836 29836 29836 29836 29836 29836 29836 29836 29836 29836 29836 29836 29836 3219 3219 3219 3219 3219 3219 3219 3219 3219 3219 3219 3219 3219 3219 3219 3219 3219 3219 3219 3219 3219 3219 3219 3219 3219 3219 3219 3219 3219 3219 3219 3219 3219 3219 3219 3219 3219 3219 46432 46432 46432 46432 46432 46432 46432 46432 46432 46432 46432 46432 46432 46432 46432 46432 46432 46432 42258 42258 42258 42258 42258 42258 42258 42258 42258 42258 42258 42258 42258 42258 42258 42258 42258 42258 42258 42258 42258 42258 42258 29836 29836 29836 29836 29836 29836 29836 29836 29836 29836 29836 29836 29836 29836 29836 29836 29836 29836 29836 29836 29836 29836 29836 29836 29836 29836 29836 29836 29836 29836 29836 29836 29836 29836 29836 29836 29836 29836 29836 29836 29836 3219 3219 3219 3219 3219 3219 3219 3219 3219 3219 3219 3219 3219 3219 3219 3219 3219 3219 3219 3219 3219 3219 3219 3219 3219 3219 3219 3219 3219 3219 3219 3219 3219 3219 3219 3219 3219 3219 46432 46432 46432 46432 46432 46432 46432 46432 46432 46432 46432 46432 46432 46432 46432 46432 46432 46432 42258 42258 42258 42258 42258 42258 42258 42258 42258 42258 42258 42258 42258 42258 42258 42258 42258 42258 42258 42258 42258 42258 42258 29836 29836 29836 29836 29836 29836 29836 29836 29836 29836 29836 29836 29836 29836 29836 29836 29836 29836 29836 29836 29836 29836 29836 29836 29836 29836 29836 29836 29836 29836 29836 29836 29836 29836 29836 29836 29836 29836 29836 29836 29836 3219 3219 3219 3219 3219 3219 3219 3219 3219 3219 3219 3219 3219 3219 3219 3219 3219 3219 3219 3219 3219 3219 3219 3219 3219 3219 3219 3219 3219 3219 3219 3219 3219 3219 3219 3219 3219 3219 46432 46432 46432 46432 46432 46432 46432 46432 46432 46432 46432 46432 46432 46432 46432 46432 46432 46432 42258 42258 42258 42258 42258 42258 42258 42258 42258 42258 42258 42258 42258 42258 42258 42258 42258 42258 42258 42258 42258 42258 42258 29836 29836 29836 29836 29836 29836 29836 29836 29836 29836 29836 29836 29836 29836 29836 29836 29836 29836 29836 29836 29836 29836 29836 29836 29836 29836 29836 29836 29836 29836 29836 29836 29836 29836 29836 29836 29836 29836 29836 29836 29836 3219 3219 3219 3219 3219 3219 3219 3219 3219 3219 3219 3219 3219 3219 3219 3219 3219 3219 3219 3219 3219 3219 3219 3219 3219 3219 3219 3219 3219 3219 3219 3219 3219 3219 3219 3219 3219 3219 46432 46432 46432 46432 46432 46432 46432 46432 46432 46432 46432 46432 46432 46432 46432 46432 46432 46432 42258 42258 42258 42258 42258 42258 42258 42258 42258 42258 42258 42258 42258 42258 42258 42258 42258 42258 42258 42258 42258 42258 42258 29836 29836 29836 29836 29836 29836 29836 29836 29836 29836 29836 29836 29836 29836 29836 29836 29836 29836 29836 29836 29836 29836 29836 29836 29836 29836 29836 29836 29836 29836 29836 29836 29836 29836 29836 29836 29836 29836 29836 29836 29836 3219 3219 3219 3219 3219 3219 3219 3219 3219 3219 3219 3219 3219 3219 3219 3219 3219 3219 3219 3219 3219 3219 3219 3219 3219 3219 3219 3219 3219 3219 3219 3219 3219 3219 3219 3219 3219 3219 46432 46432 46432 46432 46432 46432 46432 46432 46432 46432 46432 46432 46432 46432 46432 46432 46432 46432 42258 42258 42258 42258 42258 42258 42258 42258 42258 42258 42258 42258 42258 42258 42258 42258 42258 42258 42258 42258 42258 42258 42258 29836 29836 29836 29836 29836 29836 29836 29836 29836 29836 29836 29836 29836 29836 29836 29836 29836 29836 29836 29836 29836 29836 29836 29836 29836 29836 29836 29836 29836 29836 29836 29836 29836 29836 29836 29836 29836 29836 29836 29836 29836 3219 3219 3219 3219 3219 3219 3219 3219 3219 3219 3219 3219 3219 3219 3219 3219 3219 3219 3219 3219 3219 3219 3219 3219 3219 3219 3219 3219 3219 3219 3219 3219 3219 3219 3219 3219 3219 3219 46432 46432 46432 46432 46432 46432 46432 46432 46432 46432 46432 46432 46432 46432 46432 46432 46432 46432 42258 42258 42258 42258 42258 42258 42258 42258 42258 42258 42258 42258 42258 42258 42258 42258 42258 42258 42258 42258 42258 42258 42258 29836 29836 29836 29836 29836 29836 29836 29836 29836 29836 29836 29836 29836 29836 29836 29836 29836 29836 29836 29836 29836 29836 29836 29836 29836 29836 29836 29836 29836 29836 29836 29836 29836 29836 29836 29836 29836 29836 29836 29836 29836 3219 3219 3219 3219 3219 3219 3219 3219 3219 3219 3219 3219 3219 3219 3219 3219 3219 3219 3219 3219 3219 3219 3219 3219 3219 3219 3219 3219 3219 3219 3219 3219 3219 3219 3219 3219 3219 3219 46432 46432 46432 46432 46432 46432 46432 46432 46432 46432 46432 46432 46432 46432 46432 46432 46432 46432 42258 42258 42258 42258 42258 42258 42258 42258 42258 42258 42258 42258 42258 42258 42258 42258 42258 42258 42258 42258 42258 42258 42258 29836 29836 29836 29836 29836 29836 29836 29836 29836 29836 29836 29836 29836 29836 29836 29836 29836 29836 29836 29836 29836 29836 29836 29836 29836 29836 29836 29836 29836 29836 29836 29836 29836 29836 29836 29836 29836 29836 29836 29836 29836 3219 3219 3219 3219 3219 3219 3219 3219 3219 3219 3219 3219 3219 3219 3219 3219 3219 3219 3219 3219 3219 3219 3219 3219 3219 3219 3219 3219 3219 3219 3219 3219 3219 3219 3219 3219 3219 3219 46432 46432 46432 46432 46432 46432 46432 46432 46432 46432 46432 46432 46432 46432 46432 46432 46432 46432 42258 42258 42258 42258 42258 42258 42258 42258 42258 42258 42258 42258 42258 42258 42258 42258 42258 42258 42258 42258 42258 42258 42258 29836 29836 29836 29836 29836 29836 29836 29836 29836 29836 29836 29836 29836 29836 29836 29836 29836 29836 29836 29836 29836 29836 29836 29836 29836 29836 29836 29836 29836 29836 29836 29836 29836 29836 29